LAMMPS (3 Mar 2020)
KOKKOS mode is enabled (src/KOKKOS/kokkos.cpp:85)
  will use up to 1 GPU(s) per node
Kokkos::OpenMP::initialize WARNING: OMP_PROC_BIND environment variable not set
  In general, for best performance with OpenMP 4.0 or better set OMP_PROC_BIND=spread and OMP_PLACES=threads
  For best performance with OpenMP 3.1 set OMP_PROC_BIND=true
  For unit testing set OMP_PROC_BIND=false
  using 1 OpenMP thread(s) per MPI task
Lattice spacing in x,y,z = 3.615 3.615 3.615
Created orthogonal box = (0 0 0) to (72.3 72.3 72.3)
  1 by 1 by 2 MPI processor grid
Created 32000 atoms
  create_atoms CPU = 0.00617665 secs
Reading potential file ./Cu_u3.eam with DATE: 2007-06-11
time v_ee
Neighbor list info ...
  update every 1 steps, delay 5 steps, check yes
  max neighbors/atom: 2000, page size: 100000
  master list distance cutoff = 5.95
  ghost atom cutoff = 5.95
  binsize = 5.95, bins = 13 13 13
  1 neighbor lists, perpetual/occasional/extra = 1 0 0
  (1) pair eam/kk, perpetual
      attributes: full, newton off, kokkos_device
      pair build: full/bin/kk/device
      stencil: full/bin/3d
      bin: kk/device
Setting up Verlet run ...
  Unit style    : metal
  Current step  : 0
  Time step     : 0.001
Kokkos::OpenMP::initialize WARNING: OMP_PROC_BIND environment variable not set
  In general, for best performance with OpenMP 4.0 or better set OMP_PROC_BIND=spread and OMP_PLACES=threads
  For best performance with OpenMP 3.1 set OMP_PROC_BIND=true
  For unit testing set OMP_PROC_BIND=false
Per MPI rank memory allocation (min/avg/max) = 6.976 | 6.976 | 6.976 Mbytes
Step Temp E_pair E_mol TotEng Press 
       0          300      -113280            0   -112039.14    3506.8974 
     100    142.38426   -112625.61            0   -112036.68     10318.88 
     200    154.65961   -112671.03            0   -112031.33    9655.4224 
     300    153.99387   -112662.85            0    -112025.9    9850.0056 
     400    147.14493   -112628.12            0    -112019.5    10251.571 
     500    158.66366    -112668.6            0   -112012.34     9798.371 
     600     154.1961    -112642.6            0   -112004.81    10132.588 
     700    154.76238   -112637.06            0   -111996.93    10194.725 
     800    157.24632   -112639.09            0   -111988.69    10188.814 
     900    156.91717    -112629.2            0   -111980.16    10318.937 
    1000    158.83397   -112628.31            0   -111971.35    10343.177 
    1100    158.83104   -112619.26            0   -111962.31    10472.848 
    1200    162.06324   -112623.37            0   -111953.05    10435.417 
    1300    160.88815      -112609            0   -111943.54    10633.549 
    1400    162.92292   -112607.74            0   -111933.86    10648.897 
    1500     164.4631   -112604.19            0   -111923.94    10736.308 
    1600    163.56709   -112590.41            0   -111913.87    10870.379 
    1700    167.36014    -112595.8            0   -111903.56    10889.831 
    1800    166.10334   -112580.23            0   -111893.19    11034.167 
    1900    167.35362   -112574.77            0   -111882.56    11114.608 
    2000    172.92447   -112587.04            0    -111871.8    11039.734 
    2100    172.32736   -112573.66            0   -111860.88    11207.974 
    2200    173.56363   -112567.69            0    -111849.8    11298.029 
    2300    174.43304    -112560.1            0   -111838.61    11415.553 
    2400     175.2372   -112552.05            0   -111827.24    11518.395 
    2500    177.19145   -112548.61            0   -111815.71    11572.805 
    2600    179.81184   -112547.82            0   -111804.09    11616.933 
    2700    179.93179   -112536.55            0   -111792.31    11787.626 
    2800    181.52085   -112531.24            0   -111780.43    11849.068 
    2900    182.81995   -112524.58            0    -111768.4    11952.029 
    3000    185.10162   -112521.86            0   -111756.25    12022.737 
    3100    186.72777   -112516.37            0   -111744.03    12113.855 
    3200    189.21208   -112514.24            0   -111731.62    12159.738 
    3300    188.04836   -112496.96            0   -111719.16    12357.887 
    3400    191.96528   -112500.51            0   -111706.51    12381.808 
    3500    191.17109   -112484.56            0   -111693.84    12556.525 
    3600    191.19147   -112471.81            0   -111681.01    12711.445 
    3700    194.68578   -112473.34            0   -111668.08     12740.07 
    3800    196.27501   -112466.91            0   -111655.07    12848.332 
    3900    196.45327   -112454.55            0   -111641.98     12984.28 
    4000    199.83589   -112455.34            0   -111628.78    13021.685 
    4100    201.97738   -112450.92            0    -111615.5    13114.314 
    4200    200.89812   -112433.09            0   -111602.14    13306.959 
    4300    203.05859   -112428.53            0   -111588.64    13407.131 
    4400    205.07927   -112423.38            0   -111575.13    13504.705 
    4500    207.47102   -112419.68            0   -111561.54    13550.206 
    4600    209.58036   -112414.68            0   -111547.82    13649.744 
    4700    210.58704   -112405.13            0    -111534.1     13795.53 
    4800    212.49493   -112399.18            0   -111520.26    13864.839 
    4900     215.5237   -112397.84            0   -111506.39    13936.472 
    5000    216.32965   -112387.26            0   -111492.47    14063.199 
    5100    219.23857   -112385.26            0   -111478.45     14144.41 
    5200    218.76091   -112369.27            0   -111464.43    14328.508 
    5300      220.368   -112361.79            0   -111450.31    14430.503 
    5400    222.73107   -112357.45            0   -111436.19    14517.392 
    5500    223.61965   -112346.99            0   -111422.05    14668.254 
    5600    227.11172   -112347.22            0   -111407.84    14696.831 
    5700    226.79401   -112331.66            0    -111393.6    14888.054 
    5800    229.98562   -112330.61            0   -111379.35    14935.714 
    5900    230.08681   -112316.73            0   -111365.05     15118.33 
    6000    233.49544   -112316.52            0   -111350.73     15140.34 
    6100    234.56381   -112306.62            0   -111336.42    15296.444 
    6200    238.07453    -112306.8            0   -111322.08    15330.804 
    6300      238.559   -112294.44            0   -111307.72    15508.149 
    6400    238.09367   -112278.22            0   -111293.41     15688.66 
    6500    240.93335   -112275.61            0   -111279.06    15760.264 
    6600    244.64393   -112276.65            0   -111264.75    15788.884 
    6700    244.69555   -112262.56            0   -111250.45    15975.263 
    6800    246.98237   -112257.75            0   -111236.18    16059.461 
    6900    248.55265   -112249.99            0   -111221.93    16170.738 
    7000    249.81045   -112241.02            0   -111207.75    16295.617 
    7100    253.25777   -112241.07            0   -111193.55    16322.879 
    7200    252.69494   -112224.63            0   -111179.43    16535.653 
    7300    256.24333   -112225.23            0   -111165.35    16555.494 
    7400    257.14045   -112214.92            0   -111151.34    16701.682 
    7500    259.78008   -112211.91            0   -111137.41    16767.313 
    7600    260.92787   -112202.79            0   -111123.54    16905.163 
    7700    262.20097    -112194.3            0   -111109.78    17020.087 
    7800    263.66176   -112186.61            0   -111096.05    17139.232 
    7900    265.34478   -112179.98            0   -111082.46    17236.951 
    8000    267.50123   -112175.36            0   -111068.92    17321.407 
    8100    268.25829   -112165.08            0   -111055.52    17474.158 
    8200    271.05994   -112163.37            0   -111042.21    17519.619 
    8300    272.32794   -112155.44            0   -111029.04     17616.98 
    8400    272.56347   -112143.38            0   -111016.01    17782.483 
    8500    274.07037   -112136.72            0   -111003.11      17891.9 
    8600     276.2642   -112133.05            0   -110990.37    17941.482 
    8700    277.57778   -112125.88            0   -110977.76    18061.276 
    8800     278.6744      -112118            0   -110965.35    18181.868 
    8900    283.15117   -112124.25            0   -110953.08    18152.113 
    9000    281.38215    -112104.9            0   -110941.05    18359.382 
    9100    282.41803   -112097.33            0   -110929.19    18468.336 
    9200    286.46132   -112102.39            0   -110917.53    18446.751 
    9300    286.85326   -112092.54            0   -110906.06    18566.761 
    9400    287.40729   -112083.64            0   -110894.86    18695.831 
    9500    291.22418   -112088.45            0   -110883.89    18652.459 
    9600    290.24244   -112073.64            0   -110873.14      18876.2 
    9700     292.7558   -112073.57            0   -110862.67    18868.705 
    9800    292.33787   -112061.66            0   -110852.49    19032.251 
    9900    294.65944   -112061.37            0    -110842.6    19054.027 
   10000    295.81021   -112056.55            0   -110833.02    19136.994 
Loop time of 8.43778 on 2 procs for 10000 steps with 32000 atoms

Performance: 102.397 ns/day, 0.234 hours/ns, 1185.146 timesteps/s
84.1% CPU use with 2 MPI tasks x 1 OpenMP threads

MPI task timing breakdown:
Section |  min time  |  avg time  |  max time  |%varavg| %total
---------------------------------------------------------------
Pair    | 3.5725     | 3.5733     | 3.5741     |   0.0 | 42.35
Neigh   | 0          | 0          | 0          |   0.0 |  0.00
Comm    | 2.2863     | 2.2873     | 2.2883     |   0.1 | 27.11
Output  | 0.0089699  | 0.0091728  | 0.0093757  |   0.2 |  0.11
Modify  | 2.157      | 2.1619     | 2.1669     |   0.3 | 25.62
Other   |            | 0.4061     |            |       |  4.81

Nlocal:    16000 ave 16000 max 16000 min
Histogram: 2 0 0 0 0 0 0 0 0 0
Nghost:    13821 ave 13821 max 13821 min
Histogram: 2 0 0 0 0 0 0 0 0 0
Neighs:    0 ave 0 max 0 min
Histogram: 2 0 0 0 0 0 0 0 0 0
FullNghs:  1.248e+06 ave 1.248e+06 max 1.248e+06 min
Histogram: 2 0 0 0 0 0 0 0 0 0

Total # of neighbors = 2496000
Ave neighs/atom = 78
Neighbor list builds = 0
Dangerous builds = 0
Total wall time: 0:00:09
