LAMMPS (3 Mar 2020)
KOKKOS mode is enabled (src/KOKKOS/kokkos.cpp:85)
  will use up to 2 GPU(s) per node
Kokkos::OpenMP::initialize WARNING: OMP_PROC_BIND environment variable not set
  In general, for best performance with OpenMP 4.0 or better set OMP_PROC_BIND=spread and OMP_PLACES=threads
  For best performance with OpenMP 3.1 set OMP_PROC_BIND=true
  For unit testing set OMP_PROC_BIND=false
  using 1 OpenMP thread(s) per MPI task
Lattice spacing in x,y,z = 3.615 3.615 3.615
Created orthogonal box = (0 0 0) to (72.3 72.3 72.3)
  1 by 2 by 2 MPI processor grid
Created 32000 atoms
  create_atoms CPU = 0.00968803 secs
Reading potential file ./Cu_u3.eam with DATE: 2007-06-11
time v_ee
Neighbor list info ...
  update every 1 steps, delay 5 steps, check yes
  max neighbors/atom: 2000, page size: 100000
  master list distance cutoff = 5.95
  ghost atom cutoff = 5.95
  binsize = 5.95, bins = 13 13 13
  1 neighbor lists, perpetual/occasional/extra = 1 0 0
  (1) pair eam/kk, perpetual
      attributes: full, newton off, kokkos_device
      pair build: full/bin/kk/device
      stencil: full/bin/3d
      bin: kk/device
Setting up Verlet run ...
  Unit style    : metal
  Current step  : 0
  Time step     : 0.001
Kokkos::OpenMP::initialize WARNING: OMP_PROC_BIND environment variable not set
  In general, for best performance with OpenMP 4.0 or better set OMP_PROC_BIND=spread and OMP_PLACES=threads
  For best performance with OpenMP 3.1 set OMP_PROC_BIND=true
  For unit testing set OMP_PROC_BIND=false
Kokkos::OpenMP::initialize WARNING: OMP_PROC_BIND environment variable not set
  In general, for best performance with OpenMP 4.0 or better set OMP_PROC_BIND=spread and OMP_PLACES=threads
  For best performance with OpenMP 3.1 set OMP_PROC_BIND=true
  For unit testing set OMP_PROC_BIND=false
Per MPI rank memory allocation (min/avg/max) = 3.921 | 3.921 | 3.921 Mbytes
Step Temp E_pair E_mol TotEng Press 
       0          300      -113280            0   -112039.14    3506.8974 
Kokkos::OpenMP::initialize WARNING: OMP_PROC_BIND environment variable not set
  In general, for best performance with OpenMP 4.0 or better set OMP_PROC_BIND=spread and OMP_PLACES=threads
  For best performance with OpenMP 3.1 set OMP_PROC_BIND=true
  For unit testing set OMP_PROC_BIND=false
     100    142.39619   -112625.57            0   -112036.59    10319.231 
     200    154.65172    -112670.9            0   -112031.23    9658.6724 
     300    154.00726   -112662.81            0   -112025.81    9854.7485 
     400    147.15008   -112628.03            0   -112019.39    10250.537 
     500    158.67601   -112668.53            0   -112012.21     9797.429 
     600     154.2154   -112642.54            0   -112004.67    10131.893 
     700    154.77879   -112636.95            0   -111996.75    10196.279 
     800    157.27377   -112639.02            0   -111988.51    10188.459 
     900    156.92943    -112629.1            0   -111980.01    10319.915 
    1000    158.85021   -112628.24            0    -111971.2    10342.292 
    1100     158.8387    -112619.1            0   -111962.11    10475.816 
    1200    162.07592   -112623.21            0   -111952.83    10439.733 
    1300    160.91591   -112608.88            0    -111943.3    10637.667 
    1400    162.96731   -112607.68            0   -111933.62    10649.013 
    1500    164.49103   -112604.07            0   -111923.71    10741.599 
    1600    163.56566   -112590.18            0   -111913.64    10875.058 
    1700    167.37186   -112595.61            0   -111903.33    10891.423 
    1800     166.0875   -112579.91            0   -111892.94    11038.308 
    1900    167.39055   -112574.61            0   -111882.25    11117.982 
    2000    172.95492   -112586.84            0   -111871.47    11039.433 
    2100    172.41476   -112573.68            0   -111860.54    11206.057 
    2200    173.65954   -112567.69            0    -111849.4    11294.201 
    2300    174.43179   -112559.68            0    -111838.2    11419.496 
    2400    175.27788   -112551.79            0    -111826.8    11520.695 
    2500    177.22459   -112548.32            0   -111815.28    11575.554 
    2600    179.87757   -112547.65            0   -111803.64    11618.918 
    2700    179.96319   -112536.23            0   -111791.87    11787.969 
    2800     181.5843   -112531.04            0   -111779.97    11851.539 
    2900    182.86986   -112524.32            0   -111767.93    11959.152 
    3000    185.12306   -112521.46            0   -111755.75    12033.521 
    3100    186.74473   -112515.89            0   -111743.47    12119.882 
    3200    189.25262   -112513.82            0   -111731.04    12163.754 
    3300    188.03123   -112496.23            0   -111718.49    12366.592 
    3400    192.11576   -112500.43            0    -111705.8    12377.571 
    3500      191.228   -112484.07            0   -111693.12    12563.185 
    3600    191.28354   -112471.45            0   -111680.26    12712.748 
    3700    194.72752   -112472.74            0   -111667.31    12747.154 
    3800    196.37536   -112466.52            0   -111654.28    12852.939 
    3900     196.4873   -112453.88            0   -111641.17    12993.308 
    4000    199.93896   -112454.95            0   -111627.97    13024.776 
    4100    202.05472   -112450.42            0   -111614.68    13123.332 
    4200    201.06334   -112432.94            0    -111601.3    13315.185 
    4300    203.21871    -112428.3            0   -111587.75    13409.321 
    4400    205.24078   -112423.16            0   -111574.24    13506.574 
    4500    207.45622   -112418.72            0   -111560.64     13563.58 
    4600    209.73944    -112414.4            0   -111546.88     13652.45 
    4700    210.68506    -112404.6            0   -111533.17     13804.68 
    4800    212.64861   -112398.89            0   -111519.33    13871.685 
    4900     215.5854   -112397.14            0   -111505.43     13944.71 
    5000    216.36445   -112386.43            0   -111491.51    14071.527 
    5100     219.3862   -112384.91            0   -111477.48     14146.31 
    5200    218.76996   -112368.32            0   -111463.45    14342.211 
    5300    220.60844   -112361.76            0   -111449.28    14434.863 
    5400    223.01336   -112357.57            0   -111435.15    14521.397 
    5500    223.74456   -112346.43            0   -111420.97    14671.465 
    5600    227.31464   -112346.95            0   -111406.74    14699.751 
    5700    227.00559   -112331.38            0   -111392.44    14893.862 
    5800    230.21464   -112330.39            0   -111378.18    14944.042 
    5900    230.01836   -112315.24            0   -111363.84    15131.373 
    6000    233.69528   -112316.12            0   -111349.51    15145.602 
    6100    234.84675   -112306.51            0   -111335.13    15302.569 
    6200    238.17839    -112305.9            0   -111320.75    15342.614 
    6300    238.83752   -112294.28            0    -111306.4    15509.838 
    6400    238.08225   -112276.87            0   -111292.12    15703.806 
    6500    241.08922   -112274.93            0   -111277.74    15767.976 
    6600    244.84471   -112276.08            0   -111263.36    15799.644 
    6700    244.80027   -112261.56            0   -111249.02    15992.306 
    6800    247.22685   -112257.25            0   -111234.67    16069.754 
    6900    248.79529   -112249.45            0   -111220.39    16183.597 
    7000    250.05964   -112240.48            0   -111206.18    16299.423 
    7100    253.57276   -112240.85            0   -111192.03    16328.916 
    7200    252.72444   -112223.22            0   -111177.91    16553.244 
    7300    256.35462   -112224.13            0    -111163.8    16568.792 
    7400    257.32921   -112214.12            0   -111149.75    16708.146 
    7500    259.72589   -112210.08            0   -111135.81    16790.519 
    7600     261.2328   -112202.41            0    -111121.9    16913.341 
    7700      262.426   -112193.49            0   -111108.04    17032.478 
    7800    263.68438   -112184.89            0   -111094.24    17154.759 
    7900    265.65084   -112179.37            0   -111080.58    17249.794 
    8000    267.81355   -112174.72            0   -111066.99    17335.684 
    8100    268.28006   -112163.19            0   -111053.53    17495.685 
    8200    271.25589   -112162.17            0    -111040.2    17538.288 
    8300    272.49007   -112153.98            0    -111026.9    17630.091 
    8400    272.74452   -112141.93            0   -111013.81    17795.964 
    8500    274.31825   -112135.52            0   -111000.89    17908.224 
    8600    276.50595   -112131.85            0   -110988.17     17958.76 
    8700    277.68769   -112124.15            0   -110975.58    18080.343 
    8800     279.0588   -112117.46            0   -110963.22    18194.951 
    8900    283.12814   -112122.02            0   -110950.95    18181.765 
    9000    281.68759   -112104.02            0    -110938.9    18366.305 
    9100    282.31884   -112094.76            0   -110927.03    18500.833 
    9200    287.13749      -112103            0   -110915.35    18442.843 
    9300    286.78402   -112090.09            0   -110903.89    18601.557 
    9400    287.81937   -112083.05            0   -110892.58    18703.908 
    9500    291.27694   -112086.23            0   -110881.45    18676.711 
    9600    290.01323   -112070.14            0   -110870.59    18915.842 
    9700    292.62151   -112070.31            0   -110859.97    18914.561 
    9800    292.36811    -112059.1            0   -110849.81    19062.232 
    9900    295.48136   -112062.09            0   -110839.92    19057.758 
   10000    296.24562    -112055.7            0   -110830.37    19152.648 
Loop time of 16.9834 on 4 procs for 10000 steps with 32000 atoms

Performance: 50.873 ns/day, 0.472 hours/ns, 588.809 timesteps/s
91.9% CPU use with 4 MPI tasks x 1 OpenMP threads

MPI task timing breakdown:
Section |  min time  |  avg time  |  max time  |%varavg| %total
---------------------------------------------------------------
Pair    | 5.7689     | 5.9161     | 6.0771     |   5.9 | 34.83
Neigh   | 0          | 0          | 0          |   0.0 |  0.00
Comm    | 8.3308     | 8.4921     | 8.6368     |   4.8 | 50.00
Output  | 0.009054   | 0.010043   | 0.010684   |   0.6 |  0.06
Modify  | 2.1269     | 2.1304     | 2.1341     |   0.2 | 12.54
Other   |            | 0.4348     |            |       |  2.56

Nlocal:    8000 ave 8000 max 8000 min
Histogram: 4 0 0 0 0 0 0 0 0 0
Nghost:    9131 ave 9131 max 9131 min
Histogram: 4 0 0 0 0 0 0 0 0 0
Neighs:    0 ave 0 max 0 min
Histogram: 4 0 0 0 0 0 0 0 0 0
FullNghs:  624000 ave 624000 max 624000 min
Histogram: 4 0 0 0 0 0 0 0 0 0

Total # of neighbors = 2496000
Ave neighs/atom = 78
Neighbor list builds = 0
Dangerous builds = 0
Total wall time: 0:00:18
