LAMMPS (3 Mar 2020)
KOKKOS mode is enabled (src/KOKKOS/kokkos.cpp:85)
  will use up to 1 GPU(s) per node
Kokkos::OpenMP::initialize WARNING: OMP_PROC_BIND environment variable not set
  In general, for best performance with OpenMP 4.0 or better set OMP_PROC_BIND=spread and OMP_PLACES=threads
  For best performance with OpenMP 3.1 set OMP_PROC_BIND=true
  For unit testing set OMP_PROC_BIND=false
  using 1 OpenMP thread(s) per MPI task
Lattice spacing in x,y,z = 3.615 3.615 3.615
Created orthogonal box = (0 0 0) to (72.3 72.3 72.3)
  1 by 1 by 2 MPI processor grid
Created 32000 atoms
  create_atoms CPU = 0.0053339 secs
Reading potential file ./Cu_u3.eam with DATE: 2007-06-11
time v_ee
Neighbor list info ...
  update every 1 steps, delay 5 steps, check yes
  max neighbors/atom: 2000, page size: 100000
  master list distance cutoff = 5.95
  ghost atom cutoff = 5.95
  binsize = 5.95, bins = 13 13 13
  1 neighbor lists, perpetual/occasional/extra = 1 0 0
  (1) pair eam/kk, perpetual
Kokkos::OpenMP::initialize WARNING: OMP_PROC_BIND environment variable not set
  In general, for best performance with OpenMP 4.0 or better set OMP_PROC_BIND=spread and OMP_PLACES=threads
  For best performance with OpenMP 3.1 set OMP_PROC_BIND=true
  For unit testing set OMP_PROC_BIND=false
      attributes: full, newton off, kokkos_device
      pair build: full/bin/kk/device
      stencil: full/bin/3d
      bin: kk/device
Setting up Verlet run ...
  Unit style    : metal
  Current step  : 0
  Time step     : 0.001
Per MPI rank memory allocation (min/avg/max) = 6.976 | 6.976 | 6.976 Mbytes
Step Temp E_pair E_mol TotEng Press 
       0          300      -113280            0   -112039.14    3506.8974 
     100    142.38615   -112625.61            0   -112036.67    10319.935 
     200    154.65757   -112671.02            0   -112031.32    9655.0605 
     300    153.99756   -112662.87            0    -112025.9    9854.4112 
     400    147.14365   -112628.12            0   -112019.51    10248.652 
     500    158.66645   -112668.63            0   -112012.36    9797.7998 
     600    154.19459   -112642.61            0   -112004.83    10131.797 
     700    154.75617   -112637.05            0   -111996.95    10194.704 
     800    157.25327   -112639.14            0   -111988.71    10187.963 
     900    156.91402   -112629.21            0   -111980.18    10318.875 
    1000    158.83742   -112628.35            0   -111971.37    10342.573 
    1100    158.82344   -112619.26            0   -111962.34     10472.96 
    1200    162.05673   -112623.37            0   -111953.07    10435.357 
    1300     160.8859   -112609.02            0   -111943.56    10633.319 
    1400    162.91647   -112607.74            0   -111933.88     10649.44 
    1500    164.46388   -112604.23            0   -111923.97    10735.708 
    1600    163.56258   -112590.42            0    -111913.9    10870.236 
    1700    167.36091   -112595.83            0   -111903.59    10889.634 
    1800    166.10568   -112580.27            0   -111893.23    11033.676 
    1900     167.3584   -112574.81            0   -111882.59    11115.838 
    2000    172.91896   -112587.05            0   -111871.82    11039.668 
    2100    172.32511   -112573.68            0   -111860.91    11206.171 
    2200    173.55893    -112567.7            0   -111849.82    11296.999 
    2300       174.42   -112560.08            0   -111838.65    11415.604 
    2400    175.23481   -112552.08            0   -111827.27    11517.673 
    2500    177.17818   -112548.58            0   -111815.74    11573.177 
    2600    179.82312   -112547.89            0   -111804.11    11614.539 
    2700    179.92114   -112536.52            0   -111792.34    11788.295 
    2800    181.49233    -112531.1            0   -111780.41    11852.721 
    2900    182.81351   -112524.53            0   -111768.38    11953.718 
    3000    185.09758   -112521.83            0   -111756.23    12026.436 
    3100     186.7321   -112516.36            0      -111744     12113.98 
    3200    189.20264   -112514.17            0   -111731.59    12160.954 
    3300    188.04829   -112496.93            0   -111719.13    12358.383 
    3400    191.95596   -112500.45            0   -111706.48    12382.972 
    3500    191.16737   -112484.52            0   -111693.81    12557.133 
    3600    191.19975   -112471.82            0   -111680.98    12711.759 
    3700    194.68658   -112473.31            0   -111668.05    12741.564 
    3800    196.30098   -112466.98            0   -111655.04    12847.694 
    3900    196.45107   -112454.51            0   -111641.95    12984.542 
    4000    199.81185   -112455.22            0   -111628.76    13023.016 
    4100    201.96648   -112450.85            0   -111615.48     13114.71 
    4200    200.89959   -112433.09            0   -111602.13    13307.287 
    4300    203.06115   -112428.54            0   -111588.64    13405.231 
    4400    205.07386   -112423.34            0   -111575.12    13505.251 
    4500    207.44312   -112419.55            0   -111561.53    13551.781 
    4600    209.57294   -112414.65            0   -111547.82    13648.253 
    4700    210.61404   -112405.25            0   -111534.11    13794.766 
    4800    212.49831   -112399.21            0   -111520.27    13866.404 
    4900    215.52103   -112397.84            0    -111506.4    13936.233 
    5000    216.33444   -112387.28            0   -111492.48    14063.262 
    5100    219.22851   -112385.22            0   -111478.45    14144.579 
    5200    218.75081   -112369.24            0   -111464.44    14330.162 
    5300    220.34977   -112361.71            0    -111450.3    14431.895 
    5400    222.74072   -112357.48            0   -111436.18     14517.56 
    5500    223.62518   -112347.01            0   -111422.05    14668.968 
    5600     227.1153   -112347.23            0   -111407.83    14694.852 
    5700    226.80621   -112331.71            0   -111393.59    14887.711 
    5800    229.98766   -112330.61            0   -111379.34    14936.175 
    5900    230.05659    -112316.6            0   -111365.04    15118.944 
    6000    233.47109   -112316.41            0   -111350.73    15140.715 
    6100    234.58252    -112306.7            0   -111336.42    15294.871 
    6200    238.09047   -112306.88            0   -111322.09    15331.729 
    6300    238.56408    -112294.5            0   -111307.75    15506.076 
    6400    238.09405   -112278.27            0   -111293.47     15688.75 
    6500    240.91557   -112275.59            0   -111279.12    15759.902 
    6600    244.63229   -112276.66            0   -111264.81    15787.729 
    6700    244.68786   -112262.59            0   -111250.51    15975.717 
    6800    247.06425   -112258.15            0   -111236.25    16055.937 
    6900    248.46708    -112249.7            0   -111221.99    16172.974 
    7000    249.80427   -112241.06            0   -111207.82    16293.757 
    7100    253.25328   -112241.13            0   -111193.62    16323.777 
    7200    252.68113   -112224.64            0    -111179.5    16530.271 
    7300    256.17373   -112225.01            0   -111165.43    16556.569 
    7400    257.18128   -112215.17            0   -111151.42    16699.805 
    7500    259.78789   -112212.02            0   -111137.48    16764.984 
    7600    260.93521   -112202.88            0    -111123.6    16903.756 
    7700    262.22881   -112194.46            0   -111109.83    17016.615 
    7800     263.6295   -112186.52            0   -111096.09    17142.182 
    7900    265.27091   -112179.72            0   -111082.51    17238.856 
    8000     267.4502    -112175.2            0   -111068.98    17322.197 
    8100    268.22959   -112165.02            0   -111055.57    17474.709 
    8200    271.09695   -112163.59            0   -111042.28     17514.02 
    8300    272.26539   -112155.24            0    -111029.1    17618.401 
    8400    272.58518   -112143.54            0   -111016.07    17782.644 
    8500    274.04758    -112136.7            0   -111003.19    17889.117 
    8600    276.35945   -112133.52            0   -110990.44    17935.241 
    8700    277.63014   -112126.17            0   -110977.84    18059.776 
    8800    278.74574   -112118.37            0   -110965.42     18171.02 
    8900    283.09714    -112124.1            0   -110953.16     18153.18 
    9000     281.3401    -112104.8            0   -110941.12    18357.377 
    9100    282.35913   -112097.15            0   -110929.26    18466.328 
    9200    286.35753   -112102.04            0   -110917.61    18449.709 
    9300    286.94119   -112092.98            0   -110906.13    18561.348 
    9400     287.4114   -112083.73            0   -110894.94    18693.353 
    9500    291.35786    -112089.1            0   -110883.98    18641.699 
    9600    290.02273   -112072.82            0   -110873.23    18882.027 
    9700    292.87519   -112074.15            0   -110862.76    18861.633 
    9800    292.20133   -112061.18            0   -110852.58    19036.877 
    9900    294.72382   -112061.73            0   -110842.69     19049.97 
   10000    295.60014   -112055.76            0    -110833.1    19141.601 
Loop time of 9.325 on 2 procs for 10000 steps with 32000 atoms

Performance: 92.654 ns/day, 0.259 hours/ns, 1072.386 timesteps/s
80.2% CPU use with 2 MPI tasks x 1 OpenMP threads

MPI task timing breakdown:
Section |  min time  |  avg time  |  max time  |%varavg| %total
---------------------------------------------------------------
Pair    | 3.8007     | 3.8026     | 3.8045     |   0.1 | 40.78
Neigh   | 0          | 0          | 0          |   0.0 |  0.00
Comm    | 2.2826     | 2.2848     | 2.2871     |   0.2 | 24.50
Output  | 0.0088407  | 0.11928    | 0.22971    |  32.0 |  1.28
Modify  | 2.3763     | 2.4871     | 2.5978     |   7.0 | 26.67
Other   |            | 0.6312     |            |       |  6.77

Nlocal:    16000 ave 16000 max 16000 min
Histogram: 2 0 0 0 0 0 0 0 0 0
Nghost:    13821 ave 13821 max 13821 min
Histogram: 2 0 0 0 0 0 0 0 0 0
Neighs:    0 ave 0 max 0 min
Histogram: 2 0 0 0 0 0 0 0 0 0
FullNghs:  1.248e+06 ave 1.248e+06 max 1.248e+06 min
Histogram: 2 0 0 0 0 0 0 0 0 0

Total # of neighbors = 2496000
Ave neighs/atom = 78
Neighbor list builds = 0
Dangerous builds = 0
Total wall time: 0:00:10
