LAMMPS (3 Mar 2020)
KOKKOS mode is enabled (src/KOKKOS/kokkos.cpp:85)
  will use up to 1 GPU(s) per node
Kokkos::OpenMP::initialize WARNING: OMP_PROC_BIND environment variable not set
  In general, for best performance with OpenMP 4.0 or better set OMP_PROC_BIND=spread and OMP_PLACES=threads
  For best performance with OpenMP 3.1 set OMP_PROC_BIND=true
  For unit testing set OMP_PROC_BIND=false
  using 1 OpenMP thread(s) per MPI task
Lattice spacing in x,y,z = 3.615 3.615 3.615
Created orthogonal box = (0 0 0) to (72.3 72.3 72.3)
  1 by 1 by 2 MPI processor grid
Created 32000 atoms
  create_atoms CPU = 0.00532528 secs
Reading potential file ./Cu_u3.eam with DATE: 2007-06-11
time v_ee
Neighbor list info ...
  update every 1 steps, delay 5 steps, check yes
  max neighbors/atom: 2000, page size: 100000
  master list distance cutoff = 5.95
  ghost atom cutoff = 5.95
  binsize = 5.95, bins = 13 13 13
  1 neighbor lists, perpetual/occasional/extra = 1 0 0
  (1) pair eam/kk, perpetual
Kokkos::OpenMP::initialize WARNING: OMP_PROC_BIND environment variable not set
  In general, for best performance with OpenMP 4.0 or better set OMP_PROC_BIND=spread and OMP_PLACES=threads
  For best performance with OpenMP 3.1 set OMP_PROC_BIND=true
  For unit testing set OMP_PROC_BIND=false
      attributes: full, newton off, kokkos_device
      pair build: full/bin/kk/device
      stencil: full/bin/3d
      bin: kk/device
Setting up Verlet run ...
  Unit style    : metal
  Current step  : 0
  Time step     : 0.001
Per MPI rank memory allocation (min/avg/max) = 6.976 | 6.976 | 6.976 Mbytes
Step Temp E_pair E_mol TotEng Press 
       0          300      -113280            0   -112039.14    3506.8974 
     100    142.38595   -112625.61            0   -112036.67    10319.921 
     200    154.65868   -112671.03            0   -112031.33    9655.4556 
     300    153.99078   -112662.84            0    -112025.9    9855.5128 
     400    147.14411   -112628.12            0    -112019.5    10251.342 
     500    158.66565   -112668.62            0   -112012.34    9797.9144 
     600    154.19252   -112642.59            0   -112004.82    10131.998 
     700     154.7598   -112637.06            0   -111996.94    10193.217 
     800    157.25182   -112639.12            0    -111988.7    10188.399 
     900    156.91543    -112629.2            0   -111980.17    10319.035 
    1000    158.84291   -112628.37            0   -111971.36    10342.581 
    1100    158.82241   -112619.25            0   -111962.33    10473.702 
    1200    162.05539   -112623.36            0   -111953.06    10435.709 
    1300    160.89358   -112609.04            0   -111943.55    10632.951 
    1400    162.91546   -112607.73            0   -111933.88    10649.088 
    1500    164.45964   -112604.21            0   -111923.97    10735.727 
    1600    163.56283   -112590.43            0   -111913.91    10869.966 
    1700    167.34482   -112595.78            0   -111903.61    10889.855 
    1800      166.105   -112580.28            0   -111893.24    11033.451 
    1900    167.35612   -112574.82            0    -111882.6    11113.836 
    2000    172.90649   -112587.01            0   -111871.84    11038.395 
    2100     172.3223   -112573.68            0   -111860.92    11206.483 
    2200    173.55999   -112567.73            0   -111849.85    11296.574 
    2300    174.41297   -112560.05            0   -111838.64    11408.617 
    2400     175.2165   -112551.98            0   -111827.25    11518.687 
    2500    177.19622   -112548.64            0   -111815.73    11572.365 
    2600    179.81833   -112547.86            0   -111804.09     11616.38 
    2700    179.94276    -112536.6            0   -111792.32    11787.737 
    2800    181.51137   -112531.21            0   -111780.44     11848.02 
    2900    182.81556   -112524.57            0   -111768.41    11952.775 
    3000    185.11588   -112521.93            0   -111756.26    12025.146 
    3100    186.73766   -112516.41            0   -111744.03    12113.698 
    3200    189.21227   -112514.24            0   -111731.62    12159.737 
    3300    188.03495   -112496.89            0   -111719.14    12358.852 
    3400    191.96918   -112500.51            0   -111706.49    12382.245 
    3500    191.16154    -112484.5            0   -111693.82    12557.003 
    3600    191.21014   -112471.87            0   -111680.99    12714.959 
    3700    194.67417   -112473.28            0   -111668.07    12742.246 
    3800    196.28237   -112466.93            0   -111655.07    12848.449 
    3900    196.44828   -112454.53            0   -111641.98    12984.726 
    4000    199.83034   -112455.32            0   -111628.78    13022.354 
    4100     201.9618   -112450.86            0    -111615.5    13115.451 
    4200    200.89816   -112433.09            0   -111602.14    13307.283 
    4300     203.0423   -112428.46            0   -111588.63    13409.527 
    4400    205.10504   -112423.47            0   -111575.12     13503.66 
    4500    207.44466   -112419.55            0   -111561.52    13548.748 
    4600    209.56557   -112414.61            0   -111547.81    13651.194 
    4700    210.59655   -112405.17            0    -111534.1    13797.951 
    4800    212.48544   -112399.14            0   -111520.26    13864.122 
    4900    215.52805   -112397.85            0   -111506.38    13936.429 
    5000     216.2937   -112387.09            0   -111492.45    14063.823 
    5100    219.26481   -112385.36            0   -111478.44    14143.513 
    5200    218.73683   -112369.16            0   -111464.42    14330.738 
    5300    220.39525   -112361.88            0   -111450.28    14430.831 
    5400    222.74171   -112357.48            0   -111436.18    14512.438 
    5500    223.59905   -112346.89            0   -111422.04    14668.874 
    5600    227.11054   -112347.19            0   -111407.81    14692.741 
    5700    226.80354   -112331.67            0   -111393.57    14888.252 
    5800    230.01827   -112330.71            0   -111379.31      14935.6 
    5900    230.10611   -112316.79            0   -111365.02    15117.247 
    6000    233.50154   -112316.53            0   -111350.72    15141.179 
    6100    234.56154   -112306.61            0   -111336.42    15296.637 
    6200    238.10435   -112306.93            0   -111322.09    15330.142 
    6300    238.61059   -112294.69            0   -111307.75     15503.57 
    6400    238.05192   -112278.09            0   -111293.46    15689.201 
    6500    240.89092    -112275.5            0   -111279.13    15759.791 
    6600     244.6084   -112276.57            0   -111264.82    15792.167 
    6700    244.68877    -112262.6            0   -111250.52    15974.241 
    6800    246.98475   -112257.82            0   -111236.25    16057.522 
    6900    248.52133   -112249.93            0      -111222    16170.896 
    7000     249.8016   -112241.05            0   -111207.82    16294.249 
    7100    253.19908    -112240.9            0   -111193.62    16324.092 
    7200    252.66339   -112224.58            0   -111179.51    16535.356 
    7300    256.15768   -112224.96            0   -111165.44      16557.2 
    7400    257.10442   -112214.87            0   -111151.43    16702.648 
    7500    259.75456   -112211.89            0   -111137.49    16766.549 
    7600    260.92223   -112202.84            0   -111123.61    16903.613 
    7700    262.18871   -112194.31            0   -111109.85    17017.641 
    7800    263.65125   -112186.63            0   -111096.12      17136.2 
    7900    265.28231   -112179.78            0   -111082.52    17237.937 
    8000    267.53627   -112175.59            0   -111069.01    17318.242 
    8100    268.11983   -112164.61            0   -111055.62    17477.151 
    8200    271.10351   -112163.67            0   -111042.33    17514.873 
    8300    272.31209   -112155.48            0   -111029.15    17616.814 
    8400    272.60569   -112143.67            0   -111016.12    17778.736 
    8500    274.07271   -112136.85            0   -111003.23    17888.797 
    8600    276.18104   -112132.83            0   -110990.49     17946.75 
    8700    277.58356   -112126.03            0   -110977.89    18057.225 
    8800    278.59861   -112117.82            0   -110965.48    18181.856 
    8900    283.08894   -112124.13            0   -110953.22    18154.758 
    9000    281.37918   -112105.01            0   -110941.17    18356.195 
    9100    282.27141   -112096.83            0    -110929.3    18470.753 
    9200    286.44804   -112102.46            0   -110917.66    18444.227 
    9300    286.94847   -112093.07            0   -110906.19    18562.603 
    9400    287.49654   -112084.14            0      -110895    18689.035 
    9500    291.23924   -112088.66            0   -110884.03    18649.929 
    9600    290.22268   -112073.69            0   -110873.27    18882.879 
    9700     292.9017    -112074.3            0    -110862.8    18861.397 
    9800    292.25563   -112061.45            0   -110852.62    19031.622 
    9900    294.71354   -112061.73            0   -110842.73    19051.499 
   10000    295.79105   -112056.58            0   -110833.13    19138.438 
Loop time of 9.34179 on 2 procs for 10000 steps with 32000 atoms

Performance: 92.488 ns/day, 0.259 hours/ns, 1070.459 timesteps/s
77.8% CPU use with 2 MPI tasks x 1 OpenMP threads

MPI task timing breakdown:
Section |  min time  |  avg time  |  max time  |%varavg| %total
---------------------------------------------------------------
Pair    | 4.032      | 4.143      | 4.2541     |   5.5 | 44.35
Neigh   | 0          | 0          | 0          |   0.0 |  0.00
Comm    | 2.2854     | 2.2864     | 2.2874     |   0.1 | 24.47
Output  | 0.0089277  | 0.0096167  | 0.010306   |   0.7 |  0.10
Modify  | 2.3795     | 2.4933     | 2.6072     |   7.2 | 26.69
Other   |            | 0.4094     |            |       |  4.38

Nlocal:    16000 ave 16000 max 16000 min
Histogram: 2 0 0 0 0 0 0 0 0 0
Nghost:    13821 ave 13821 max 13821 min
Histogram: 2 0 0 0 0 0 0 0 0 0
Neighs:    0 ave 0 max 0 min
Histogram: 2 0 0 0 0 0 0 0 0 0
FullNghs:  1.248e+06 ave 1.248e+06 max 1.248e+06 min
Histogram: 2 0 0 0 0 0 0 0 0 0

Total # of neighbors = 2496000
Ave neighs/atom = 78
Neighbor list builds = 0
Dangerous builds = 0
Total wall time: 0:00:10
