LAMMPS (3 Mar 2020)
KOKKOS mode is enabled (src/KOKKOS/kokkos.cpp:85)
  will use up to 2 GPU(s) per node
Kokkos::OpenMP::initialize WARNING: OMP_PROC_BIND environment variable not set
  In general, for best performance with OpenMP 4.0 or better set OMP_PROC_BIND=spread and OMP_PLACES=threads
  For best performance with OpenMP 3.1 set OMP_PROC_BIND=true
  For unit testing set OMP_PROC_BIND=false
  using 1 OpenMP thread(s) per MPI task
Lattice spacing in x,y,z = 3.615 3.615 3.615
Created orthogonal box = (0 0 0) to (72.3 72.3 72.3)
  1 by 2 by 2 MPI processor grid
Created 32000 atoms
  create_atoms CPU = 0.0165049 secs
Reading potential file ./Cu_u3.eam with DATE: 2007-06-11
time v_ee
Neighbor list info ...
  update every 1 steps, delay 5 steps, check yes
  max neighbors/atom: 2000, page size: 100000
  master list distance cutoff = 5.95
  ghost atom cutoff = 5.95
  binsize = 5.95, bins = 13 13 13
  1 neighbor lists, perpetual/occasional/extra = 1 0 0
  (1) pair eam/kk, perpetual
Kokkos::OpenMP::initialize WARNING: OMP_PROC_BIND environment variable not set
  In general, for best performance with OpenMP 4.0 or better set OMP_PROC_BIND=spread and OMP_PLACES=threads
  For best performance with OpenMP 3.1 set OMP_PROC_BIND=true
  For unit testing set OMP_PROC_BIND=false
      attributes: full, newton off, kokkos_device
      pair build: full/bin/kk/device
      stencil: full/bin/3d
      bin: kk/device
Setting up Verlet run ...
  Unit style    : metal
  Current step  : 0
  Time step     : 0.001
Kokkos::OpenMP::initialize WARNING: OMP_PROC_BIND environment variable not set
  In general, for best performance with OpenMP 4.0 or better set OMP_PROC_BIND=spread and OMP_PLACES=threads
  For best performance with OpenMP 3.1 set OMP_PROC_BIND=true
  For unit testing set OMP_PROC_BIND=false
Per MPI rank memory allocation (min/avg/max) = 3.921 | 3.921 | 3.921 Mbytes
Step Temp E_pair E_mol TotEng Press 
Kokkos::OpenMP::initialize WARNING: OMP_PROC_BIND environment variable not set
  In general, for best performance with OpenMP 4.0 or better set OMP_PROC_BIND=spread and OMP_PLACES=threads
  For best performance with OpenMP 3.1 set OMP_PROC_BIND=true
  For unit testing set OMP_PROC_BIND=false
       0          300      -113280            0   -112039.14    3506.8974 
     100    142.39766    -112625.6            0   -112036.61    10314.786 
     200    154.64499    -112670.9            0   -112031.26    9655.3371 
     300    154.01383   -112662.85            0   -112025.82    9854.0056 
     400     147.1553   -112628.04            0   -112019.38    10251.445 
     500     158.6709    -112668.5            0   -112012.21     9798.319 
     600    154.22338   -112642.54            0   -112004.64    10132.475 
     700    154.81549   -112637.07            0   -111996.73    10196.027 
     800    157.28001      -112639            0   -111988.46    10188.486 
     900    156.92847      -112629            0   -111979.91    10324.604 
    1000     158.8535   -112628.11            0   -111971.07    10346.061 
    1100    158.86406   -112619.13            0   -111962.03    10474.881 
    1200    162.08079   -112623.16            0   -111952.76    10437.578 
    1300    160.90627   -112608.81            0   -111943.27    10632.649 
    1400    162.96646   -112607.68            0   -111933.61    10650.473 
    1500    164.47928   -112604.01            0   -111923.69    10739.069 
    1600    163.57579   -112590.21            0   -111913.62    10874.815 
    1700     167.3711   -112595.58            0    -111903.3    10893.383 
    1800    166.11522   -112579.98            0    -111892.9    11039.557 
    1900    167.40325   -112574.62            0   -111882.21    11113.264 
    2000    172.95979   -112586.84            0   -111871.44    11046.138 
    2100     172.3637   -112573.44            0   -111860.51     11210.76 
    2200    173.62598   -112567.57            0   -111849.42    11300.168 
    2300     174.4345   -112559.71            0   -111838.22    11420.095 
    2400    175.23135   -112551.62            0   -111826.83    11523.714 
    2500    177.20336   -112548.22            0   -111815.27    11577.126 
    2600    179.89718   -112547.71            0   -111803.62    11618.044 
    2700    179.99981   -112536.33            0   -111791.82    11792.062 
    2800    181.53641    -112530.8            0   -111779.93    11855.189 
    2900    182.90118   -112524.43            0   -111767.91    11952.154 
    3000    185.14719   -112521.53            0   -111755.73    12031.256 
    3100    186.73117    -112515.8            0   -111743.44    12121.563 
    3200    189.23637   -112513.75            0   -111731.03    12162.221 
    3300    188.10854   -112496.57            0   -111718.52    12363.484 
    3400    192.03773    -112500.1            0   -111705.79    12386.574 
    3500    191.30028   -112484.31            0   -111693.05    12557.991 
    3600    191.28688   -112471.35            0   -111680.15    12716.083 
    3700    194.83883   -112473.09            0    -111667.2    12744.118 
    3800     196.3844   -112466.43            0   -111654.14    12860.805 
    3900    196.53539   -112453.92            0   -111641.01    12992.811 
    4000    199.86478   -112454.43            0   -111627.75    13031.587 
    4100    202.08727   -112450.31            0   -111614.43    13123.274 
    4200    201.04246   -112432.55            0   -111600.99    13313.945 
    4300    203.22034      -112428            0   -111587.44    13417.978 
    4400    205.21585   -112422.67            0   -111573.85    13513.653 
    4500    207.56312   -112418.72            0   -111560.19    13565.103 
    4600    209.70899   -112413.87            0   -111546.47    13664.022 
    4700    210.73071   -112404.41            0   -111532.79     13805.83 
    4800    212.67481    -112398.6            0   -111518.93    13874.751 
    4900    215.62826    -112396.9            0   -111505.02    13947.851 
    5000    216.41063   -112386.19            0   -111491.07    14076.626 
    5100    219.46953    -112384.8            0   -111477.03    14151.856 
    5200    218.86242   -112368.25            0   -111462.99    14344.392 
    5300    220.54037   -112361.01            0   -111448.81    14443.926 
    5400     222.9963   -112357.02            0   -111434.67    14528.259 
    5500    223.68003   -112345.64            0   -111420.46     14692.87 
    5600    227.30374   -112346.39            0   -111406.22     14706.71 
    5700    227.00853   -112330.84            0   -111391.89    14900.228 
    5800    230.31749   -112330.23            0   -111377.59    14946.775 
    5900    230.09537   -112314.93            0   -111363.22    15143.914 
    6000    233.83395   -112316.05            0   -111348.87    15149.627 
    6100    234.78032    -112305.6            0    -111334.5    15308.718 
    6200    238.29875   -112305.78            0   -111320.13    15346.629 
    6300    238.87346   -112293.79            0   -111305.76    15518.183 
    6400    238.31578   -112277.19            0   -111291.47    15702.467 
    6500    241.18455   -112274.66            0   -111277.07    15769.875 
    6600    244.85497   -112275.49            0   -111262.73    15806.278 
    6700    244.95686   -112261.66            0   -111248.47    15984.435 
    6800    247.21401   -112256.67            0   -111234.14     16073.15 
    6900    248.78113   -112248.86            0   -111219.85    16190.278 
    7000    250.25338   -112240.75            0   -111205.66    16302.204 
    7100    253.49966   -112239.96            0   -111191.43    16339.655 
    7200    252.85991    -112223.2            0   -111177.32    16556.872 
    7300    256.36857    -112223.6            0   -111163.21    16573.011 
    7400    257.25884   -112213.22            0   -111149.15    16722.238 
    7500    260.09516   -112210.97            0   -111135.16    16781.822 
    7600    261.08025    -112201.1            0   -111121.22    16928.364 
    7700     262.4943   -112193.11            0   -111107.38    17033.532 
    7800    263.74681   -112184.52            0   -111093.62    17164.818 
    7900    265.62117   -112178.67            0   -111080.01    17255.253 
    8000    267.86272   -112174.41            0   -111066.48     17337.99 
    8100    268.09121   -112161.87            0      -111053    17509.181 
    8200    271.27206   -112161.75            0   -111039.72    17544.746 
    8300    272.55534   -112153.92            0   -111026.58    17637.048 
    8400    272.59713   -112141.05            0   -111013.54    17813.003 
    8500     274.6613   -112136.67            0   -111000.62     17899.59 
    8600    276.54911    -112131.7            0   -110987.84    17961.971 
    8700    278.21817   -112126.04            0   -110975.28    18065.182 
    8800     278.5808   -112115.13            0   -110962.87    18215.944 
    8900    283.49658   -112123.21            0   -110950.61    18173.172 
    9000    281.63628   -112103.51            0   -110938.61    18384.334 
    9100    282.72151    -112096.2            0   -110926.81    18484.629 
    9200    286.97248   -112102.09            0   -110915.11    18460.604 
    9300    287.21691   -112091.67            0   -110903.69    18578.154 
    9400    287.87904   -112083.23            0   -110892.51    18711.551 
    9500    291.64371   -112087.79            0    -110881.5    18672.494 
    9600    290.24989   -112071.26            0   -110870.73    18901.945 
    9700    292.47221   -112070.03            0   -110860.31    18921.271 
    9800    292.25942   -112059.04            0   -110850.19    19063.291 
    9900    295.10451    -112060.8            0   -110840.19    19076.381 
   10000    295.88638   -112054.47            0   -110830.62    19167.167 
Loop time of 16.8384 on 4 procs for 10000 steps with 32000 atoms

Performance: 51.311 ns/day, 0.468 hours/ns, 593.879 timesteps/s
91.7% CPU use with 4 MPI tasks x 1 OpenMP threads

MPI task timing breakdown:
Section |  min time  |  avg time  |  max time  |%varavg| %total
---------------------------------------------------------------
Pair    | 5.5625     | 5.7523     | 5.9446     |   7.9 | 34.16
Neigh   | 0          | 0          | 0          |   0.0 |  0.00
Comm    | 8.3492     | 8.5375     | 8.7228     |   6.3 | 50.70
Output  | 0.009223   | 0.010053   | 0.01155    |   0.9 |  0.06
Modify  | 2.1111     | 2.1166     | 2.1202     |   0.2 | 12.57
Other   |            | 0.4219     |            |       |  2.51

Nlocal:    8000 ave 8000 max 8000 min
Histogram: 4 0 0 0 0 0 0 0 0 0
Nghost:    9131 ave 9131 max 9131 min
Histogram: 4 0 0 0 0 0 0 0 0 0
Neighs:    0 ave 0 max 0 min
Histogram: 4 0 0 0 0 0 0 0 0 0
FullNghs:  624000 ave 624000 max 624000 min
Histogram: 4 0 0 0 0 0 0 0 0 0

Total # of neighbors = 2496000
Ave neighs/atom = 78
Neighbor list builds = 0
Dangerous builds = 0
Total wall time: 0:00:17
